-0.6000000E-01  0.0000000E+00
-0.5995000E-01  0.0000000E+00
-0.5990000E-01  0.0000000E+00
-0.5985000E-01  0.0000000E+00
-0.5980000E-01  0.0000000E+00
-0.5975000E-01  0.0000000E+00
-0.5970000E-01  0.0000000E+00
-0.5965000E-01  0.0000000E+00
-0.5960000E-01  0.0000000E+00
-0.5955000E-01  0.0000000E+00
-0.5950000E-01  0.0000000E+00
-0.5945000E-01  0.0000000E+00
-0.5940000E-01  0.0000000E+00
-0.5935000E-01  0.0000000E+00
-0.5930000E-01  0.0000000E+00
-0.5925000E-01  0.0000000E+00
-0.5920000E-01  0.0000000E+00
-0.5915000E-01  0.0000000E+00
-0.5910000E-01  0.0000000E+00
-0.5905000E-01  0.0000000E+00
-0.5900000E-01  0.0000000E+00
-0.5895000E-01  0.0000000E+00
-0.5890000E-01  0.0000000E+00
-0.5885000E-01  0.0000000E+00
-0.5880000E-01  0.0000000E+00
-0.5875000E-01  0.0000000E+00
-0.5870000E-01  0.0000000E+00
-0.5865000E-01  0.0000000E+00
-0.5860000E-01  0.0000000E+00
-0.5855000E-01  0.0000000E+00
-0.5850000E-01  0.0000000E+00
-0.5845000E-01  0.0000000E+00
-0.5840000E-01  0.0000000E+00
-0.5835000E-01  0.0000000E+00
-0.5830000E-01  0.0000000E+00
-0.5825000E-01  0.0000000E+00
-0.5820000E-01  0.0000000E+00
-0.5815000E-01  0.0000000E+00
-0.5810000E-01  0.0000000E+00
-0.5805000E-01  0.0000000E+00
-0.5800000E-01  0.0000000E+00
-0.5795000E-01  0.0000000E+00
-0.5790000E-01  0.0000000E+00
-0.5785000E-01  0.0000000E+00
-0.5780000E-01  0.0000000E+00
-0.5775000E-01  0.0000000E+00
-0.5770000E-01  0.0000000E+00
-0.5765000E-01  0.0000000E+00
-0.5760000E-01  0.0000000E+00
-0.5755000E-01  0.0000000E+00
-0.5750000E-01  0.0000000E+00
-0.5745000E-01  0.0000000E+00
-0.5740000E-01  0.0000000E+00
-0.5735000E-01  0.0000000E+00
-0.5730000E-01  0.0000000E+00
-0.5725000E-01  0.0000000E+00
-0.5720000E-01  0.0000000E+00
-0.5715000E-01  0.0000000E+00
-0.5710000E-01  0.0000000E+00
-0.5705000E-01  0.0000000E+00
-0.5700000E-01  0.0000000E+00
-0.5695000E-01  0.0000000E+00
-0.5690000E-01  0.0000000E+00
-0.5685000E-01  0.0000000E+00
-0.5680000E-01  0.0000000E+00
-0.5675000E-01  0.0000000E+00
-0.5670000E-01  0.0000000E+00
-0.5665000E-01  0.0000000E+00
-0.5660000E-01  0.0000000E+00
-0.5655000E-01  0.0000000E+00
-0.5650000E-01  0.0000000E+00
-0.5645000E-01  0.0000000E+00
-0.5640000E-01  0.0000000E+00
-0.5635000E-01  0.0000000E+00
-0.5630000E-01  0.0000000E+00
-0.5625000E-01  0.0000000E+00
-0.5620000E-01  0.0000000E+00
-0.5615000E-01  0.0000000E+00
-0.5610000E-01  0.0000000E+00
-0.5605000E-01  0.0000000E+00
-0.5600000E-01  0.0000000E+00
-0.5595000E-01  0.0000000E+00
-0.5590000E-01  0.0000000E+00
-0.5585000E-01  0.0000000E+00
-0.5580000E-01  0.0000000E+00
-0.5575000E-01  0.0000000E+00
-0.5570000E-01  0.0000000E+00
-0.5565000E-01  0.0000000E+00
-0.5560000E-01  0.0000000E+00
-0.5555000E-01  0.0000000E+00
-0.5550000E-01  0.0000000E+00
-0.5545000E-01  0.0000000E+00
-0.5540000E-01  0.0000000E+00
-0.5535000E-01  0.0000000E+00
-0.5530000E-01  0.0000000E+00
-0.5525000E-01  0.0000000E+00
-0.5520000E-01  0.0000000E+00
-0.5515000E-01  0.0000000E+00
-0.5510000E-01  0.0000000E+00
-0.5505000E-01  0.0000000E+00
-0.5500000E-01  0.0000000E+00
-0.5495000E-01  0.0000000E+00
-0.5490000E-01  0.0000000E+00
-0.5485000E-01  0.0000000E+00
-0.5480000E-01  0.0000000E+00
-0.5475000E-01  0.0000000E+00
-0.5470000E-01  0.0000000E+00
-0.5465000E-01  0.0000000E+00
-0.5460000E-01  0.0000000E+00
-0.5455000E-01  0.0000000E+00
-0.5450000E-01  0.0000000E+00
-0.5445000E-01  0.0000000E+00
-0.5440000E-01  0.0000000E+00
-0.5435000E-01  0.0000000E+00
-0.5430000E-01  0.0000000E+00
-0.5425000E-01  0.0000000E+00
-0.5420000E-01  0.0000000E+00
-0.5415000E-01  0.0000000E+00
-0.5410000E-01  0.0000000E+00
-0.5405000E-01  0.0000000E+00
-0.5400000E-01  0.0000000E+00
-0.5395000E-01  0.0000000E+00
-0.5390000E-01  0.0000000E+00
-0.5385000E-01  0.0000000E+00
-0.5380000E-01  0.0000000E+00
-0.5375000E-01  0.0000000E+00
-0.5370000E-01  0.0000000E+00
-0.5365000E-01  0.0000000E+00
-0.5360000E-01  0.0000000E+00
-0.5355000E-01  0.0000000E+00
-0.5350000E-01  0.0000000E+00
-0.5345000E-01  0.0000000E+00
-0.5340000E-01  0.0000000E+00
-0.5335000E-01  0.0000000E+00
-0.5330000E-01  0.0000000E+00
-0.5325000E-01  0.0000000E+00
-0.5320000E-01  0.0000000E+00
-0.5315000E-01  0.0000000E+00
-0.5310000E-01  0.0000000E+00
-0.5305000E-01  0.0000000E+00
-0.5300000E-01  0.0000000E+00
-0.5295000E-01  0.0000000E+00
-0.5290000E-01  0.0000000E+00
-0.5285000E-01  0.0000000E+00
-0.5280000E-01  0.0000000E+00
-0.5275000E-01  0.0000000E+00
-0.5270000E-01  0.0000000E+00
-0.5265000E-01  0.0000000E+00
-0.5260000E-01  0.0000000E+00
-0.5255000E-01  0.0000000E+00
-0.5250000E-01  0.0000000E+00
-0.5245000E-01  0.0000000E+00
-0.5240000E-01  0.0000000E+00
-0.5235000E-01  0.0000000E+00
-0.5230000E-01  0.0000000E+00
-0.5225000E-01  0.0000000E+00
-0.5220000E-01  0.0000000E+00
-0.5215000E-01  0.0000000E+00
-0.5210000E-01  0.0000000E+00
-0.5205000E-01  0.0000000E+00
-0.5200000E-01  0.0000000E+00
-0.5195000E-01  0.0000000E+00
-0.5190000E-01  0.0000000E+00
-0.5185000E-01  0.0000000E+00
-0.5180000E-01  0.0000000E+00
-0.5175000E-01  0.0000000E+00
-0.5170000E-01  0.0000000E+00
-0.5165000E-01  0.0000000E+00
-0.5160000E-01  0.0000000E+00
-0.5155000E-01  0.0000000E+00
-0.5150000E-01  0.0000000E+00
-0.5145000E-01  0.0000000E+00
-0.5140000E-01  0.0000000E+00
-0.5135000E-01  0.0000000E+00
-0.5130000E-01  0.0000000E+00
-0.5125000E-01  0.0000000E+00
-0.5120000E-01  0.0000000E+00
-0.5115000E-01  0.0000000E+00
-0.5110000E-01  0.0000000E+00
-0.5105000E-01  0.0000000E+00
-0.5100000E-01  0.0000000E+00
-0.5095000E-01  0.0000000E+00
-0.5090000E-01  0.0000000E+00
-0.5085000E-01  0.0000000E+00
-0.5080000E-01  0.0000000E+00
-0.5075000E-01  0.0000000E+00
-0.5070000E-01  0.0000000E+00
-0.5065000E-01  0.0000000E+00
-0.5060000E-01  0.0000000E+00
-0.5055000E-01  0.0000000E+00
-0.5050000E-01  0.0000000E+00
-0.5045000E-01  0.0000000E+00
-0.5040000E-01  0.0000000E+00
-0.5035000E-01  0.0000000E+00
-0.5030000E-01  0.0000000E+00
-0.5025000E-01  0.0000000E+00
-0.5020000E-01  0.0000000E+00
-0.5015000E-01  0.0000000E+00
-0.5010000E-01  0.0000000E+00
-0.5005000E-01  0.0000000E+00
-0.5000000E-01  0.0000000E+00
-0.4995000E-01  0.0000000E+00
-0.4990000E-01  0.0000000E+00
-0.4985000E-01  0.0000000E+00
-0.4980000E-01  0.0000000E+00
-0.4975000E-01  0.0000000E+00
-0.4970000E-01  0.0000000E+00
-0.4965000E-01  0.0000000E+00
-0.4960000E-01  0.0000000E+00
-0.4955000E-01  0.0000000E+00
-0.4950000E-01  0.0000000E+00
-0.4945000E-01  0.0000000E+00
-0.4940000E-01  0.0000000E+00
-0.4935000E-01  0.0000000E+00
-0.4930000E-01  0.0000000E+00
-0.4925000E-01  0.0000000E+00
-0.4920000E-01  0.0000000E+00
-0.4915000E-01  0.0000000E+00
-0.4910000E-01  0.0000000E+00
-0.4905000E-01  0.0000000E+00
-0.4900000E-01  0.0000000E+00
-0.4895000E-01  0.0000000E+00
-0.4890000E-01  0.0000000E+00
-0.4885000E-01  0.0000000E+00
-0.4880000E-01  0.0000000E+00
-0.4875000E-01  0.0000000E+00
-0.4870000E-01  0.0000000E+00
-0.4865000E-01  0.0000000E+00
-0.4860000E-01  0.0000000E+00
-0.4855000E-01  0.0000000E+00
-0.4850000E-01  0.0000000E+00
-0.4845000E-01  0.0000000E+00
-0.4840000E-01  0.0000000E+00
-0.4835000E-01  0.0000000E+00
-0.4830000E-01  0.0000000E+00
-0.4825000E-01  0.0000000E+00
-0.4820000E-01  0.0000000E+00
-0.4815000E-01  0.0000000E+00
-0.4810000E-01  0.0000000E+00
-0.4805000E-01  0.0000000E+00
-0.4800000E-01  0.0000000E+00
-0.4795000E-01  0.0000000E+00
-0.4790000E-01  0.0000000E+00
-0.4785000E-01  0.0000000E+00
-0.4780000E-01  0.0000000E+00
-0.4775000E-01  0.0000000E+00
-0.4770000E-01  0.0000000E+00
-0.4765000E-01  0.0000000E+00
-0.4760000E-01  0.0000000E+00
-0.4755000E-01  0.0000000E+00
-0.4750000E-01  0.0000000E+00
-0.4745000E-01  0.0000000E+00
-0.4740000E-01  0.0000000E+00
-0.4735000E-01  0.0000000E+00
-0.4730000E-01  0.0000000E+00
-0.4725000E-01  0.0000000E+00
-0.4720000E-01  0.0000000E+00
-0.4715000E-01  0.0000000E+00
-0.4710000E-01  0.0000000E+00
-0.4705000E-01  0.0000000E+00
-0.4700000E-01  0.0000000E+00
-0.4695000E-01  0.0000000E+00
-0.4690000E-01  0.0000000E+00
-0.4685000E-01  0.0000000E+00
-0.4680000E-01  0.0000000E+00
-0.4675000E-01  0.0000000E+00
-0.4670000E-01  0.0000000E+00
-0.4665000E-01  0.0000000E+00
-0.4660000E-01  0.0000000E+00
-0.4655000E-01  0.0000000E+00
-0.4650000E-01  0.0000000E+00
-0.4645000E-01  0.0000000E+00
-0.4640000E-01  0.0000000E+00
-0.4635000E-01  0.0000000E+00
-0.4630000E-01  0.0000000E+00
-0.4625000E-01  0.0000000E+00
-0.4620000E-01  0.0000000E+00
-0.4615000E-01  0.0000000E+00
-0.4610000E-01  0.0000000E+00
-0.4605000E-01  0.0000000E+00
-0.4600000E-01  0.0000000E+00
-0.4595000E-01  0.0000000E+00
-0.4590000E-01  0.0000000E+00
-0.4585000E-01  0.0000000E+00
-0.4580000E-01  0.0000000E+00
-0.4575000E-01  0.0000000E+00
-0.4570000E-01  0.0000000E+00
-0.4565000E-01  0.0000000E+00
-0.4560000E-01  0.0000000E+00
-0.4555000E-01  0.0000000E+00
-0.4550000E-01  0.0000000E+00
-0.4545000E-01  0.0000000E+00
-0.4540000E-01  0.0000000E+00
-0.4535000E-01  0.0000000E+00
-0.4530000E-01  0.0000000E+00
-0.4525000E-01  0.0000000E+00
-0.4520000E-01  0.0000000E+00
-0.4515000E-01  0.0000000E+00
-0.4510000E-01  0.0000000E+00
-0.4505000E-01  0.0000000E+00
-0.4500000E-01  0.0000000E+00
-0.4495000E-01  0.0000000E+00
-0.4490000E-01  0.0000000E+00
-0.4485000E-01  0.0000000E+00
-0.4480000E-01  0.0000000E+00
-0.4475000E-01  0.0000000E+00
-0.4470000E-01  0.0000000E+00
-0.4465000E-01  0.0000000E+00
-0.4460000E-01  0.0000000E+00
-0.4455000E-01  0.0000000E+00
-0.4450000E-01  0.0000000E+00
-0.4445000E-01  0.0000000E+00
-0.4440000E-01  0.0000000E+00
-0.4435000E-01  0.0000000E+00
-0.4430000E-01  0.0000000E+00
-0.4425000E-01  0.0000000E+00
-0.4420000E-01  0.0000000E+00
-0.4415000E-01  0.0000000E+00
-0.4410000E-01  0.0000000E+00
-0.4405000E-01  0.0000000E+00
-0.4400000E-01  0.0000000E+00
-0.4395000E-01  0.0000000E+00
-0.4390000E-01  0.0000000E+00
-0.4385000E-01  0.0000000E+00
-0.4380000E-01  0.0000000E+00
-0.4375000E-01  0.0000000E+00
-0.4370000E-01  0.0000000E+00
-0.4365000E-01  0.0000000E+00
-0.4360000E-01  0.0000000E+00
-0.4355000E-01  0.0000000E+00
-0.4350000E-01  0.0000000E+00
-0.4345000E-01  0.0000000E+00
-0.4340000E-01  0.0000000E+00
-0.4335000E-01  0.0000000E+00
-0.4330000E-01  0.0000000E+00
-0.4325000E-01  0.0000000E+00
-0.4320000E-01  0.0000000E+00
-0.4315000E-01  0.0000000E+00
-0.4310000E-01  0.0000000E+00
-0.4305000E-01  0.0000000E+00
-0.4300000E-01  0.0000000E+00
-0.4295000E-01  0.0000000E+00
-0.4290000E-01  0.0000000E+00
-0.4285000E-01  0.0000000E+00
-0.4280000E-01  0.0000000E+00
-0.4275000E-01  0.0000000E+00
-0.4270000E-01  0.0000000E+00
-0.4265000E-01  0.0000000E+00
-0.4260000E-01  0.0000000E+00
-0.4255000E-01  0.0000000E+00
-0.4250000E-01  0.0000000E+00
-0.4245000E-01  0.0000000E+00
-0.4240000E-01  0.0000000E+00
-0.4235000E-01  0.0000000E+00
-0.4230000E-01  0.0000000E+00
-0.4225000E-01  0.0000000E+00
-0.4220000E-01  0.0000000E+00
-0.4215000E-01  0.0000000E+00
-0.4210000E-01  0.0000000E+00
-0.4205000E-01  0.0000000E+00
-0.4200000E-01  0.0000000E+00
-0.4195000E-01  0.0000000E+00
-0.4190000E-01  0.0000000E+00
-0.4185000E-01  0.0000000E+00
-0.4180000E-01  0.0000000E+00
-0.4175000E-01  0.0000000E+00
-0.4170000E-01  0.0000000E+00
-0.4165000E-01  0.0000000E+00
-0.4160000E-01  0.0000000E+00
-0.4155000E-01  0.0000000E+00
-0.4150000E-01  0.0000000E+00
-0.4145000E-01  0.0000000E+00
-0.4140000E-01  0.0000000E+00
-0.4135000E-01  0.0000000E+00
-0.4130000E-01  0.0000000E+00
-0.4125000E-01  0.0000000E+00
-0.4120000E-01  0.0000000E+00
-0.4115000E-01  0.0000000E+00
-0.4110000E-01  0.0000000E+00
-0.4105000E-01  0.0000000E+00
-0.4100000E-01  0.0000000E+00
-0.4095000E-01  0.0000000E+00
-0.4090000E-01  0.0000000E+00
-0.4085000E-01  0.0000000E+00
-0.4080000E-01  0.0000000E+00
-0.4075000E-01  0.0000000E+00
-0.4070000E-01  0.0000000E+00
-0.4065000E-01  0.0000000E+00
-0.4060000E-01  0.0000000E+00
-0.4055000E-01  0.0000000E+00
-0.4050000E-01  0.0000000E+00
-0.4045000E-01  0.0000000E+00
-0.4040000E-01  0.0000000E+00
-0.4035000E-01  0.0000000E+00
-0.4030000E-01  0.0000000E+00
-0.4025000E-01  0.0000000E+00
-0.4020000E-01  0.0000000E+00
-0.4015000E-01  0.0000000E+00
-0.4010000E-01  0.0000000E+00
-0.4005000E-01  0.0000000E+00
-0.4000000E-01  0.0000000E+00
-0.3995000E-01  0.0000000E+00
-0.3990000E-01  0.0000000E+00
-0.3985000E-01  0.0000000E+00
-0.3980000E-01  0.0000000E+00
-0.3975000E-01  0.0000000E+00
-0.3970000E-01  0.0000000E+00
-0.3965000E-01  0.0000000E+00
-0.3960000E-01  0.0000000E+00
-0.3955000E-01  0.0000000E+00
-0.3950000E-01  0.0000000E+00
-0.3945000E-01  0.0000000E+00
-0.3940000E-01  0.0000000E+00
-0.3935000E-01  0.0000000E+00
-0.3930000E-01  0.0000000E+00
-0.3925000E-01  0.0000000E+00
-0.3920000E-01  0.0000000E+00
-0.3915000E-01  0.0000000E+00
-0.3910000E-01  0.0000000E+00
-0.3905000E-01  0.0000000E+00
-0.3900000E-01  0.0000000E+00
-0.3895000E-01  0.0000000E+00
-0.3890000E-01  0.0000000E+00
-0.3885000E-01  0.0000000E+00
-0.3880000E-01  0.0000000E+00
-0.3875000E-01  0.0000000E+00
-0.3870000E-01  0.0000000E+00
-0.3865000E-01  0.0000000E+00
-0.3860000E-01  0.0000000E+00
-0.3855000E-01  0.0000000E+00
-0.3850000E-01  0.0000000E+00
-0.3845000E-01  0.0000000E+00
-0.3840000E-01  0.0000000E+00
-0.3835000E-01  0.0000000E+00
-0.3830000E-01  0.0000000E+00
-0.3825000E-01  0.0000000E+00
-0.3820000E-01  0.0000000E+00
-0.3815000E-01  0.0000000E+00
-0.3810000E-01  0.0000000E+00
-0.3805000E-01  0.0000000E+00
-0.3800000E-01  0.0000000E+00
-0.3795000E-01  0.0000000E+00
-0.3790000E-01  0.0000000E+00
-0.3785000E-01  0.0000000E+00
-0.3780000E-01  0.0000000E+00
-0.3775000E-01  0.0000000E+00
-0.3770000E-01  0.0000000E+00
-0.3765000E-01  0.0000000E+00
-0.3760000E-01  0.0000000E+00
-0.3755000E-01  0.0000000E+00
-0.3750000E-01  0.0000000E+00
-0.3745000E-01  0.0000000E+00
-0.3740000E-01  0.0000000E+00
-0.3735000E-01  0.0000000E+00
-0.3730000E-01  0.0000000E+00
-0.3725000E-01  0.0000000E+00
-0.3720000E-01  0.0000000E+00
-0.3715000E-01  0.0000000E+00
-0.3710000E-01  0.0000000E+00
-0.3705000E-01  0.0000000E+00
-0.3700000E-01  0.0000000E+00
-0.3695000E-01  0.0000000E+00
-0.3690000E-01  0.0000000E+00
-0.3685000E-01  0.0000000E+00
-0.3680000E-01  0.0000000E+00
-0.3675000E-01  0.0000000E+00
-0.3670000E-01  0.0000000E+00
-0.3665000E-01  0.0000000E+00
-0.3660000E-01  0.0000000E+00
-0.3655000E-01  0.0000000E+00
-0.3650000E-01  0.0000000E+00
-0.3645000E-01  0.0000000E+00
-0.3640000E-01  0.0000000E+00
-0.3635000E-01  0.0000000E+00
-0.3630000E-01  0.0000000E+00
-0.3625000E-01  0.0000000E+00
-0.3620000E-01  0.0000000E+00
-0.3615000E-01  0.0000000E+00
-0.3610000E-01  0.0000000E+00
-0.3605000E-01  0.0000000E+00
-0.3600000E-01  0.0000000E+00
-0.3595000E-01  0.0000000E+00
-0.3590000E-01  0.0000000E+00
-0.3585000E-01  0.0000000E+00
-0.3580000E-01  0.0000000E+00
-0.3575000E-01  0.0000000E+00
-0.3570000E-01  0.0000000E+00
-0.3565000E-01  0.0000000E+00
-0.3560000E-01  0.0000000E+00
-0.3555000E-01  0.0000000E+00
-0.3550000E-01  0.0000000E+00
-0.3545000E-01  0.0000000E+00
-0.3540000E-01  0.0000000E+00
-0.3535000E-01  0.0000000E+00
-0.3530000E-01  0.0000000E+00
-0.3525000E-01  0.0000000E+00
-0.3520000E-01  0.0000000E+00
-0.3515000E-01  0.0000000E+00
-0.3510000E-01  0.0000000E+00
-0.3505000E-01  0.0000000E+00
-0.3500000E-01  0.0000000E+00
-0.3495000E-01  0.0000000E+00
-0.3490000E-01  0.0000000E+00
-0.3485000E-01  0.0000000E+00
-0.3480000E-01  0.0000000E+00
-0.3475000E-01  0.0000000E+00
-0.3470000E-01  0.0000000E+00
-0.3465000E-01  0.0000000E+00
-0.3460000E-01  0.0000000E+00
-0.3455000E-01  0.0000000E+00
-0.3450000E-01  0.0000000E+00
-0.3445000E-01  0.0000000E+00
-0.3440000E-01  0.0000000E+00
-0.3435000E-01  0.0000000E+00
-0.3430000E-01  0.0000000E+00
-0.3425000E-01  0.0000000E+00
-0.3420000E-01  0.0000000E+00
-0.3415000E-01  0.0000000E+00
-0.3410000E-01  0.0000000E+00
-0.3405000E-01  0.0000000E+00
-0.3400000E-01  0.0000000E+00
-0.3395000E-01  0.0000000E+00
-0.3390000E-01  0.0000000E+00
-0.3385000E-01  0.0000000E+00
-0.3380000E-01  0.0000000E+00
-0.3375000E-01  0.0000000E+00
-0.3370000E-01  0.0000000E+00
-0.3365000E-01  0.0000000E+00
-0.3360000E-01  0.0000000E+00
-0.3355000E-01  0.0000000E+00
-0.3350000E-01  0.0000000E+00
-0.3345000E-01  0.0000000E+00
-0.3340000E-01  0.0000000E+00
-0.3335000E-01  0.0000000E+00
-0.3330000E-01  0.0000000E+00
-0.3325000E-01  0.0000000E+00
-0.3320000E-01  0.0000000E+00
-0.3315000E-01  0.0000000E+00
-0.3310000E-01  0.0000000E+00
-0.3305000E-01  0.0000000E+00
-0.3300000E-01  0.0000000E+00
-0.3295000E-01  0.0000000E+00
-0.3290000E-01  0.0000000E+00
-0.3285000E-01  0.0000000E+00
-0.3280000E-01  0.0000000E+00
-0.3275000E-01  0.0000000E+00
-0.3270000E-01  0.0000000E+00
-0.3265000E-01  0.0000000E+00
-0.3260000E-01  0.0000000E+00
-0.3255000E-01  0.0000000E+00
-0.3250000E-01  0.0000000E+00
-0.3245000E-01  0.0000000E+00
-0.3240000E-01  0.0000000E+00
-0.3235000E-01  0.0000000E+00
-0.3230000E-01  0.0000000E+00
-0.3225000E-01  0.0000000E+00
-0.3220000E-01  0.0000000E+00
-0.3215000E-01  0.0000000E+00
-0.3210000E-01  0.0000000E+00
-0.3205000E-01  0.0000000E+00
-0.3200000E-01  0.0000000E+00
-0.3195000E-01  0.0000000E+00
-0.3190000E-01  0.0000000E+00
-0.3185000E-01  0.0000000E+00
-0.3180000E-01  0.0000000E+00
-0.3175000E-01  0.0000000E+00
-0.3170000E-01  0.0000000E+00
-0.3165000E-01  0.0000000E+00
-0.3160000E-01  0.0000000E+00
-0.3155000E-01  0.0000000E+00
-0.3150000E-01  0.0000000E+00
-0.3145000E-01  0.0000000E+00
-0.3140000E-01  0.0000000E+00
-0.3135000E-01  0.0000000E+00
-0.3130000E-01  0.0000000E+00
-0.3125000E-01  0.0000000E+00
-0.3120000E-01  0.0000000E+00
-0.3115000E-01  0.0000000E+00
-0.3110000E-01  0.0000000E+00
-0.3105000E-01  0.0000000E+00
-0.3100000E-01  0.0000000E+00
-0.3095000E-01  0.0000000E+00
-0.3090000E-01  0.0000000E+00
-0.3085000E-01  0.0000000E+00
-0.3080000E-01  0.0000000E+00
-0.3075000E-01  0.0000000E+00
-0.3070000E-01  0.0000000E+00
-0.3065000E-01  0.0000000E+00
-0.3060000E-01  0.0000000E+00
-0.3055000E-01  0.0000000E+00
-0.3050000E-01  0.0000000E+00
-0.3045000E-01  0.0000000E+00
-0.3040000E-01  0.0000000E+00
-0.3035000E-01  0.0000000E+00
-0.3030000E-01  0.0000000E+00
-0.3025000E-01  0.0000000E+00
-0.3020000E-01  0.0000000E+00
-0.3015000E-01  0.0000000E+00
-0.3010000E-01  0.0000000E+00
-0.3005000E-01  0.0000000E+00
-0.3000000E-01  0.0000000E+00
-0.2995000E-01  0.0000000E+00
-0.2990000E-01  0.0000000E+00
-0.2985000E-01  0.0000000E+00
-0.2980000E-01  0.0000000E+00
-0.2975000E-01  0.0000000E+00
-0.2970000E-01  0.0000000E+00
-0.2965000E-01  0.0000000E+00
-0.2960000E-01  0.0000000E+00
-0.2955000E-01  0.0000000E+00
-0.2950000E-01  0.0000000E+00
-0.2945000E-01  0.0000000E+00
-0.2940000E-01  0.0000000E+00
-0.2935000E-01  0.0000000E+00
-0.2930000E-01  0.0000000E+00
-0.2925000E-01  0.0000000E+00
-0.2920000E-01  0.0000000E+00
-0.2915000E-01  0.0000000E+00
-0.2910000E-01  0.0000000E+00
-0.2905000E-01  0.0000000E+00
-0.2900000E-01  0.0000000E+00
-0.2895000E-01  0.0000000E+00
-0.2890000E-01  0.0000000E+00
-0.2885000E-01  0.0000000E+00
-0.2880000E-01  0.0000000E+00
-0.2875000E-01  0.0000000E+00
-0.2870000E-01  0.0000000E+00
-0.2865000E-01  0.0000000E+00
-0.2860000E-01  0.0000000E+00
-0.2855000E-01  0.0000000E+00
-0.2850000E-01  0.0000000E+00
-0.2845000E-01  0.0000000E+00
-0.2840000E-01  0.0000000E+00
-0.2835000E-01  0.0000000E+00
-0.2830000E-01  0.0000000E+00
-0.2825000E-01  0.0000000E+00
-0.2820000E-01  0.0000000E+00
-0.2815000E-01  0.0000000E+00
-0.2810000E-01  0.0000000E+00
-0.2805000E-01  0.0000000E+00
-0.2800000E-01  0.0000000E+00
-0.2795000E-01  0.0000000E+00
-0.2790000E-01  0.0000000E+00
-0.2785000E-01  0.0000000E+00
-0.2780000E-01  0.0000000E+00
-0.2775000E-01  0.0000000E+00
-0.2770000E-01  0.0000000E+00
-0.2765000E-01  0.0000000E+00
-0.2760000E-01  0.0000000E+00
-0.2755000E-01  0.0000000E+00
-0.2750000E-01  0.0000000E+00
-0.2745000E-01  0.0000000E+00
-0.2740000E-01  0.0000000E+00
-0.2735000E-01  0.0000000E+00
-0.2730000E-01  0.0000000E+00
-0.2725000E-01  0.0000000E+00
-0.2720000E-01  0.0000000E+00
-0.2715000E-01  0.0000000E+00
-0.2710000E-01  0.0000000E+00
-0.2705000E-01  0.0000000E+00
-0.2700000E-01  0.0000000E+00
-0.2695000E-01  0.0000000E+00
-0.2690000E-01  0.0000000E+00
-0.2685000E-01  0.0000000E+00
-0.2680000E-01  0.0000000E+00
-0.2675000E-01  0.0000000E+00
-0.2670000E-01  0.0000000E+00
-0.2665000E-01  0.0000000E+00
-0.2660000E-01  0.0000000E+00
-0.2655000E-01  0.0000000E+00
-0.2650000E-01  0.0000000E+00
-0.2645000E-01  0.0000000E+00
-0.2640000E-01  0.0000000E+00
-0.2635000E-01  0.0000000E+00
-0.2630000E-01  0.0000000E+00
-0.2625000E-01  0.0000000E+00
-0.2620000E-01  0.0000000E+00
-0.2615000E-01  0.0000000E+00
-0.2610000E-01  0.0000000E+00
-0.2605000E-01  0.0000000E+00
-0.2600000E-01  0.0000000E+00
-0.2595000E-01  0.0000000E+00
-0.2590000E-01  0.0000000E+00
-0.2585000E-01  0.0000000E+00
-0.2580000E-01  0.0000000E+00
-0.2575000E-01  0.0000000E+00
-0.2570000E-01  0.0000000E+00
-0.2565000E-01  0.0000000E+00
-0.2560000E-01  0.0000000E+00
-0.2555000E-01  0.0000000E+00
-0.2550000E-01  0.0000000E+00
-0.2545000E-01  0.0000000E+00
-0.2540000E-01  0.0000000E+00
-0.2535000E-01  0.0000000E+00
-0.2530000E-01  0.0000000E+00
-0.2525000E-01  0.0000000E+00
-0.2520000E-01  0.0000000E+00
-0.2515000E-01  0.0000000E+00
-0.2510000E-01  0.0000000E+00
-0.2505000E-01  0.0000000E+00
-0.2500000E-01  0.0000000E+00
-0.2495000E-01  0.0000000E+00
-0.2490000E-01  0.0000000E+00
-0.2485000E-01  0.0000000E+00
-0.2480000E-01  0.0000000E+00
-0.2475000E-01  0.0000000E+00
-0.2470000E-01  0.0000000E+00
-0.2465000E-01  0.0000000E+00
-0.2460000E-01  0.0000000E+00
-0.2455000E-01  0.0000000E+00
-0.2450000E-01  0.0000000E+00
-0.2445000E-01  0.0000000E+00
-0.2440000E-01  0.0000000E+00
-0.2435000E-01  0.0000000E+00
-0.2430000E-01  0.0000000E+00
-0.2425000E-01  0.0000000E+00
-0.2420000E-01  0.0000000E+00
-0.2415000E-01  0.0000000E+00
-0.2410000E-01  0.0000000E+00
-0.2405000E-01  0.0000000E+00
-0.2400000E-01  0.0000000E+00
-0.2395000E-01  0.0000000E+00
-0.2390000E-01  0.0000000E+00
-0.2385000E-01  0.0000000E+00
-0.2380000E-01  0.0000000E+00
-0.2375000E-01  0.0000000E+00
-0.2370000E-01  0.0000000E+00
-0.2365000E-01  0.0000000E+00
-0.2360000E-01  0.0000000E+00
-0.2355000E-01  0.0000000E+00
-0.2350000E-01  0.0000000E+00
-0.2345000E-01  0.0000000E+00
-0.2340000E-01  0.0000000E+00
-0.2335000E-01  0.0000000E+00
-0.2330000E-01  0.0000000E+00
-0.2325000E-01  0.0000000E+00
-0.2320000E-01  0.0000000E+00
-0.2315000E-01  0.0000000E+00
-0.2310000E-01  0.0000000E+00
-0.2305000E-01  0.0000000E+00
-0.2300000E-01  0.0000000E+00
-0.2295000E-01  0.0000000E+00
-0.2290000E-01  0.0000000E+00
-0.2285000E-01  0.0000000E+00
-0.2280000E-01  0.0000000E+00
-0.2275000E-01  0.0000000E+00
-0.2270000E-01  0.0000000E+00
-0.2265000E-01  0.0000000E+00
-0.2260000E-01  0.0000000E+00
-0.2255000E-01  0.0000000E+00
-0.2250000E-01  0.0000000E+00
-0.2245000E-01  0.0000000E+00
-0.2240000E-01  0.0000000E+00
-0.2235000E-01  0.0000000E+00
-0.2230000E-01  0.0000000E+00
-0.2225000E-01  0.0000000E+00
-0.2220000E-01  0.0000000E+00
-0.2215000E-01  0.0000000E+00
-0.2210000E-01  0.0000000E+00
-0.2205000E-01  0.0000000E+00
-0.2200000E-01  0.0000000E+00
-0.2195000E-01  0.0000000E+00
-0.2190000E-01  0.0000000E+00
-0.2185000E-01  0.0000000E+00
-0.2180000E-01  0.0000000E+00
-0.2175000E-01  0.0000000E+00
-0.2170000E-01  0.0000000E+00
-0.2165000E-01  0.0000000E+00
-0.2160000E-01  0.0000000E+00
-0.2155000E-01  0.0000000E+00
-0.2150000E-01  0.0000000E+00
-0.2145000E-01  0.0000000E+00
-0.2140000E-01  0.0000000E+00
-0.2135000E-01  0.0000000E+00
-0.2130000E-01  0.0000000E+00
-0.2125000E-01  0.0000000E+00
-0.2120000E-01  0.0000000E+00
-0.2115000E-01  0.0000000E+00
-0.2110000E-01  0.0000000E+00
-0.2105000E-01  0.0000000E+00
-0.2100000E-01  0.0000000E+00
-0.2095000E-01  0.0000000E+00
-0.2090000E-01  0.0000000E+00
-0.2085000E-01  0.0000000E+00
-0.2080000E-01  0.0000000E+00
-0.2075000E-01  0.0000000E+00
-0.2070000E-01  0.0000000E+00
-0.2065000E-01  0.0000000E+00
-0.2060000E-01  0.0000000E+00
-0.2055000E-01  0.0000000E+00
-0.2050000E-01  0.0000000E+00
-0.2045000E-01  0.0000000E+00
-0.2040000E-01  0.0000000E+00
-0.2035000E-01  0.0000000E+00
-0.2030000E-01  0.0000000E+00
-0.2025000E-01  0.0000000E+00
-0.2020000E-01  0.0000000E+00
-0.2015000E-01  0.0000000E+00
-0.2010000E-01  0.0000000E+00
-0.2005000E-01  0.0000000E+00
-0.2000000E-01  0.0000000E+00
-0.1995000E-01  0.0000000E+00
-0.1990000E-01  0.0000000E+00
-0.1985000E-01  0.0000000E+00
-0.1980000E-01  0.0000000E+00
-0.1975000E-01  0.0000000E+00
-0.1970000E-01  0.0000000E+00
-0.1965000E-01  0.0000000E+00
-0.1960000E-01  0.0000000E+00
-0.1955000E-01  0.0000000E+00
-0.1950000E-01  0.0000000E+00
-0.1945000E-01  0.0000000E+00
-0.1940000E-01  0.0000000E+00
-0.1935000E-01  0.0000000E+00
-0.1930000E-01  0.0000000E+00
-0.1925000E-01  0.0000000E+00
-0.1920000E-01  0.0000000E+00
-0.1915000E-01  0.0000000E+00
-0.1910000E-01  0.0000000E+00
-0.1905000E-01  0.0000000E+00
-0.1900000E-01  0.0000000E+00
-0.1895000E-01  0.0000000E+00
-0.1890000E-01  0.0000000E+00
-0.1885000E-01  0.0000000E+00
-0.1880000E-01  0.0000000E+00
-0.1875000E-01  0.0000000E+00
-0.1870000E-01  0.0000000E+00
-0.1865000E-01  0.0000000E+00
-0.1860000E-01  0.0000000E+00
-0.1855000E-01  0.0000000E+00
-0.1850000E-01  0.0000000E+00
-0.1845000E-01  0.0000000E+00
-0.1840000E-01  0.0000000E+00
-0.1835000E-01  0.0000000E+00
-0.1830000E-01  0.0000000E+00
-0.1825000E-01  0.0000000E+00
-0.1820000E-01  0.0000000E+00
-0.1815000E-01  0.0000000E+00
-0.1810000E-01  0.0000000E+00
-0.1805000E-01  0.0000000E+00
-0.1800000E-01  0.0000000E+00
-0.1795000E-01  0.0000000E+00
-0.1790000E-01  0.0000000E+00
-0.1785000E-01  0.0000000E+00
-0.1780000E-01  0.0000000E+00
-0.1775000E-01  0.0000000E+00
-0.1770000E-01  0.0000000E+00
-0.1765000E-01  0.0000000E+00
-0.1760000E-01  0.0000000E+00
-0.1755000E-01  0.0000000E+00
-0.1750000E-01  0.0000000E+00
-0.1745000E-01  0.0000000E+00
-0.1740000E-01  0.0000000E+00
-0.1735000E-01  0.0000000E+00
-0.1730000E-01  0.0000000E+00
-0.1725000E-01  0.0000000E+00
-0.1720000E-01  0.0000000E+00
-0.1715000E-01  0.0000000E+00
-0.1710000E-01  0.0000000E+00
-0.1705000E-01  0.0000000E+00
-0.1700000E-01  0.0000000E+00
-0.1695000E-01  0.0000000E+00
-0.1690000E-01  0.0000000E+00
-0.1685000E-01  0.0000000E+00
-0.1680000E-01  0.0000000E+00
-0.1675000E-01  0.0000000E+00
-0.1670000E-01  0.0000000E+00
-0.1665000E-01  0.0000000E+00
-0.1660000E-01  0.0000000E+00
-0.1655000E-01  0.0000000E+00
-0.1650000E-01  0.0000000E+00
-0.1645000E-01  0.0000000E+00
-0.1640000E-01  0.0000000E+00
-0.1635000E-01  0.0000000E+00
-0.1630000E-01  0.0000000E+00
-0.1625000E-01  0.0000000E+00
-0.1620000E-01  0.0000000E+00
-0.1615000E-01  0.0000000E+00
-0.1610000E-01  0.0000000E+00
-0.1605000E-01  0.0000000E+00
-0.1600000E-01  0.0000000E+00
-0.1595000E-01  0.0000000E+00
-0.1590000E-01  0.0000000E+00
-0.1585000E-01  0.0000000E+00
-0.1580000E-01  0.0000000E+00
-0.1575000E-01  0.0000000E+00
-0.1570000E-01  0.0000000E+00
-0.1565000E-01  0.0000000E+00
-0.1560000E-01  0.0000000E+00
-0.1555000E-01  0.0000000E+00
-0.1550000E-01  0.0000000E+00
-0.1545000E-01  0.0000000E+00
-0.1540000E-01  0.0000000E+00
-0.1535000E-01  0.0000000E+00
-0.1530000E-01  0.0000000E+00
-0.1525000E-01  0.0000000E+00
-0.1520000E-01  0.0000000E+00
-0.1515000E-01  0.0000000E+00
-0.1510000E-01  0.0000000E+00
-0.1505000E-01  0.0000000E+00
-0.1500000E-01  0.0000000E+00
-0.1495000E-01  0.0000000E+00
-0.1490000E-01  0.0000000E+00
-0.1485000E-01  0.0000000E+00
-0.1480000E-01  0.0000000E+00
-0.1475000E-01  0.0000000E+00
-0.1470000E-01  0.0000000E+00
-0.1465000E-01  0.0000000E+00
-0.1460000E-01  0.0000000E+00
-0.1455000E-01  0.0000000E+00
-0.1450000E-01  0.0000000E+00
-0.1445000E-01  0.0000000E+00
-0.1440000E-01  0.0000000E+00
-0.1435000E-01  0.0000000E+00
-0.1430000E-01  0.0000000E+00
-0.1425000E-01  0.0000000E+00
-0.1420000E-01  0.0000000E+00
-0.1415000E-01  0.0000000E+00
-0.1410000E-01  0.0000000E+00
-0.1405000E-01  0.0000000E+00
-0.1400000E-01  0.0000000E+00
-0.1395000E-01  0.0000000E+00
-0.1390000E-01  0.0000000E+00
-0.1385000E-01  0.0000000E+00
-0.1380000E-01  0.0000000E+00
-0.1375000E-01  0.0000000E+00
-0.1370000E-01  0.0000000E+00
-0.1365000E-01  0.0000000E+00
-0.1360000E-01  0.0000000E+00
-0.1355000E-01  0.0000000E+00
-0.1350000E-01  0.0000000E+00
-0.1345000E-01  0.0000000E+00
-0.1340000E-01  0.0000000E+00
-0.1335000E-01  0.0000000E+00
-0.1330000E-01  0.0000000E+00
-0.1325000E-01  0.0000000E+00
-0.1320000E-01  0.0000000E+00
-0.1315000E-01  0.0000000E+00
-0.1310000E-01  0.0000000E+00
-0.1305000E-01  0.0000000E+00
-0.1300000E-01  0.0000000E+00
-0.1295000E-01  0.0000000E+00
-0.1290000E-01  0.0000000E+00
-0.1285000E-01  0.0000000E+00
-0.1280000E-01  0.0000000E+00
-0.1275000E-01  0.0000000E+00
-0.1270000E-01  0.0000000E+00
-0.1265000E-01  0.0000000E+00
-0.1260000E-01  0.0000000E+00
-0.1255000E-01  0.0000000E+00
-0.1250000E-01  0.0000000E+00
-0.1245000E-01  0.0000000E+00
-0.1240000E-01  0.0000000E+00
-0.1235000E-01  0.0000000E+00
-0.1230000E-01  0.0000000E+00
-0.1225000E-01  0.0000000E+00
-0.1220000E-01  0.0000000E+00
-0.1215000E-01  0.0000000E+00
-0.1210000E-01  0.0000000E+00
-0.1205000E-01  0.0000000E+00
-0.1200000E-01  0.0000000E+00
-0.1195000E-01  0.0000000E+00
-0.1190000E-01  0.0000000E+00
-0.1185000E-01  0.0000000E+00
-0.1180000E-01  0.0000000E+00
-0.1175000E-01  0.0000000E+00
-0.1170000E-01  0.0000000E+00
-0.1165000E-01  0.0000000E+00
-0.1160000E-01  0.0000000E+00
-0.1155000E-01  0.0000000E+00
-0.1150000E-01  0.0000000E+00
-0.1145000E-01  0.0000000E+00
-0.1140000E-01  0.0000000E+00
-0.1135000E-01  0.0000000E+00
-0.1130000E-01  0.0000000E+00
-0.1125000E-01  0.0000000E+00
-0.1120000E-01  0.0000000E+00
-0.1115000E-01  0.0000000E+00
-0.1110000E-01  0.0000000E+00
-0.1105000E-01  0.0000000E+00
-0.1100000E-01  0.0000000E+00
-0.1095000E-01  0.0000000E+00
-0.1090000E-01  0.0000000E+00
-0.1085000E-01  0.0000000E+00
-0.1080000E-01  0.0000000E+00
-0.1075000E-01  0.0000000E+00
-0.1070000E-01  0.0000000E+00
-0.1065000E-01  0.0000000E+00
-0.1060000E-01  0.0000000E+00
-0.1055000E-01  0.0000000E+00
-0.1050000E-01  0.0000000E+00
-0.1045000E-01  0.0000000E+00
-0.1040000E-01  0.0000000E+00
-0.1035000E-01  0.0000000E+00
-0.1030000E-01  0.0000000E+00
-0.1025000E-01  0.0000000E+00
-0.1020000E-01  0.0000000E+00
-0.1015000E-01  0.0000000E+00
-0.1010000E-01  0.0000000E+00
-0.1005000E-01  0.0000000E+00